 &FCI NORB=   2,NELEC= 2,MS2=0,
  ORBSYM=1,1,
  ISYM=1,
 &END
 0.6744313374961955    1    1    1    1
 0.6641398619021867    1    1    2    2
 0.1815763766395629    2    1    2    1
 0.6641398619021869    2    2    1    1
 0.6989691112101808    2    2    2    2
 -1.256738954450702    1    1  0  0
 -0.4802113280514069    2    2  0  0
 0.7137539936876182  0  0  0  0
