&FCI NORB=4,NELEC=4,MS2=0
 ORBSYM=1,1,1,1,
 ISYM=1,
/
   6.75624085927690520847e-01    1    1    1    1 
  -8.85500214685840635054e-03    2    1    1    1 
   1.82327560902316221370e-01    2    1    2    1 
   6.73732457255880268221e-01    2    2    1    1 
  -1.26944003916735857068e-02    2    2    2    1 
   7.17498911076361545192e-01    2    2    2    2 
  -2.45185626450521805455e-04    3    1    1    1 
  -2.00997603200375012100e-02    3    1    2    1 
   2.15024468729770957057e-03    3    1    2    2 
   5.26230624265446988302e-03    3    1    3    1 
  -3.91365886771625828833e-02    3    2    1    1 
  -3.98865260565192409487e-03    3    2    2    1 
  -4.14016062952517402418e-02    3    2    2    2 
  -1.68068141316066155776e-03    3    2    3    1 
   1.34364998222735801403e-02    3    2    3    2 
   2.66835966009492053796e-01    3    3    1    1 
  -5.75228825270816049309e-02    3    3    2    1 
   2.84005312367462625645e-01    3    3    2    2 
  -2.45185682467957124717e-04    3    3    3    1 
   5.42519103239866087862e-02    3    3    3    2 
   6.75624085927690742892e-01    3    3    3    3 
  -5.42519103183950676672e-02    4    1    1    1 
  -2.96525275258920821900e-03    4    1    2    1 
  -5.00486482755341521855e-02    4    1    2    2 
   1.68068141316068063972e-03    4    1    3    1 
   8.18628590855664459158e-03    4    1    3    2 
   3.91365886771625412499e-02    4    1    3    3 
   1.34364998222735437111e-02    4    1    4    1 
   1.51142064740680970997e-02    4    2    1    1 
  -2.04537988773650612762e-02    4    2    2    1 
   1.68051724550260378477e-02    4    2    2    2 
   2.07886388306494432343e-03    4    2    3    1 
   2.76926178137392332151e-03    4    2    3    2 
   1.51142064740678594426e-02    4    2    3    3 
  -2.76926178137397753162e-03    4    2    4    1 
   7.68692367051600732031e-03    4    2    4    2 
   5.75228825395727727532e-02    4    3    1    1 
  -2.04718865213707260087e-02    4    3    2    1 
   6.52672156184806728785e-02    4    3    2    2 
   2.00997602785827796101e-02    4    3    3    1 
  -2.96525277534432502025e-03    4    3    3    2 
   8.85500214685794144465e-03    4    3    3    3 
  -3.98865252747909043718e-03    4    3    4    1 
   2.04537988889989079400e-02    4    3    4    2 
   1.82327560902316082592e-01    4    3    4    3 
   2.84005312367462903200e-01    4    4    1    1 
  -6.52672156178834561580e-02    4    4    2    1 
   3.01988416868127662607e-01    4    4    2    2 
   2.15024492082456324116e-03    4    4    3    1 
   5.00486483455239508644e-02    4    4    3    2 
   6.73732457255880712310e-01    4    4    3    3 
   4.14016063283715735066e-02    4    4    4    1 
   1.68051725721210833131e-02    4    4    4    2 
   1.26944003916740089793e-02    4    4    4    3 
   7.17498911076361545192e-01    4    4    4    4 
  -1.78927075080289643694e+00    1    1    0    0
   1.22220151047253602905e-01    2    1    0    0
  -9.70503960274542110120e-01    2    2    0    0
  -6.78842308232352892317e-02    3    1    0    0
   3.91976717341153621521e-03    3    2    0    0
  -1.78927075080289621489e+00    3    3    0    0
  -3.91976717341175132092e-03    4    1    0    0
   1.58525202190486602660e-01    4    2    0    0
  -1.22220151047255212728e-01    4    3    0    0
  -9.70503960274541555009e-01    4    4    0    0
   2.53385663556083384762e+00    0    0    0    0
