 &FCI NORB=   4,NELEC= 4,MS2=0,
  ORBSYM=1,1,1,1,
  ISYM=1,
 &END
 0.4755437777615543    1    1    1    1
 -2.332941930263799e-15    1    1    2    1
 0.4655968917549009    1    1    2    2
 -0.04726844503425182    1    1    3    1
 0.4634060759366636    1    1    3    3
 -0.05900730870593953    1    1    4    2
 -1.568960534164225e-15    1    1    4    3
 0.4976712311682779    1    1    4    4
 -2.36671852591174e-15    2    1    1    1
 0.2044901419424864    2    1    2    1
 0.07087590216415579    2    1    3    2
 -0.02226700956841612    2    1    4    1
 0.1949809959863082    2    1    4    3
 -1.304330401814081e-15    2    1    4    4
 0.4655968917549009    2    2    1    1
 0.4765756547412294    2    2    2    2
 -0.0038447987713713    2    2    3    1
 0.4632862977485545    2    2    3    3
 -0.02226488171799118    2    2    4    2
 1.571040470553286e-15    2    2    4    3
 0.489277848906681    2    2    4    4
 -0.04726844503425179    3    1    1    1
 -0.003844798771371336    3    1    2    2
 0.1029938121035172    3    1    3    1
 -0.0168886404677338    3    1    3    3
 0.0988053752445489    3    1    4    2
 -0.05219315370176961    3    1    4    4
 0.07087590216415576    3    2    2    1
 0.09864601787780092    3    2    3    2
 0.07023192656569803    3    2    4    1
 0.07186919398274851    3    2    4    3
 0.4634060759366637    3    3    1    1
 0.4632862977485546    3    3    2    2
 -0.01688864046773373    3    3    3    1
 0.4833678345783848    3    3    3    3
 -0.02000749707593695    3    3    4    2
 1.274940208743913e-15    3    3    4    3
 0.501555350585642    3    3    4    4
 -0.02226700956841617    4    1    2    1
 0.07023192656569799    4    1    3    2
 0.08481567126804361    4    1    4    1
 -0.01935001942471802    4    1    4    3
 -0.05900730870593952    4    2    1    1
 -0.02226488171799124    4    2    2    2
 0.09880537524454887    4    2    3    1
 -0.02000749707593706    4    2    3    3
 0.1050567422472013    4    2    4    2
 -0.06632914002361834    4    2    4    4
 -1.622906994186705e-15    4    3    1    1
 0.1949809959863082    4    3    2    1
 1.608668067679671e-15    4    3    2    2
 0.07186919398274851    4    3    3    2
 1.007906924324571e-15    4    3    3    3
 -0.01935001942471801    4    3    4    1
 0.2078717806116566    4    3    4    3
 0.497671231168278    4    4    1    1
 -1.165345945808912e-15    4    4    2    1
 0.4892778489066812    4    4    2    2
 -0.05219315370176961    4    4    3    1
 0.5015553505856419    4    4    3    3
 -0.06632914002361832    4    4    4    2
 0.5503248757097153    4    4    4    4
 -1.854919200624819    1    1  0  0
 1.554312234475219e-15    2    1  0  0
 -1.719863363375483    2    2  0  0
 0.1258339350308682    3    1  0  0
 -1.128488644512805    3    3  0  0
 -1.304512053934559e-15    4    1  0  0
 0.1180125012862209    4    2  0  0
 -0.8133031584163546    4    4  0  0
 2.528823002337975  0  0  0  0
