 &FCI NORB= 10,NELEC= 10,MS2= 0,
  ORBSYM=1,1,1,1,1,1,1,1,1,1,
  ISYM=1,
 /
  0.5215438329547492E+00   1   1   1   1
 -0.1315524338032994E-01   2   1   1   1
  0.6303715366762358E-02   2   1   2   1
  0.2956968523375671E+00   2   2   1   1
 -0.1315693196847321E-01   2   2   2   1
  0.5215432708621189E+00   2   2   2   2
 -0.1916375325271454E-02   3   1   1   1
 -0.6914105566903649E-04   3   1   2   1
  0.1333201156997604E-02   3   1   2   2
  0.1471472799626123E-03   3   1   3   1
 -0.1091631259317815E-02   3   2   1   1
  0.4204180110007952E-03   3   2   2   1
  0.2398602286817624E-02   3   2   2   2
  0.4148789587438918E-04   3   2   3   1
  0.3575009235233863E-03   3   2   3   2
  0.1736537377582057E+00   3   3   1   1
 -0.3210010727887902E-02   3   3   2   1
  0.1993452924602208E+00   3   3   2   2
 -0.2999619958633808E-02   3   3   3   1
  0.8137236350875630E-03   3   3   3   2
  0.5586965021504143E+00   3   3   3   3
 -0.1895926922840495E-02   4   1   1   1
 -0.5625955799982430E-04   4   1   2   1
 -0.2548383806345418E-03   4   1   2   2
  0.4016706022808039E-04   4   1   3   1
  0.8161727272198607E-05   4   1   3   2
 -0.4348134842713346E-03   4   1   3   3
  0.1895465499150704E-03   4   1   4   1
 -0.1652628678457869E-03   4   2   1   1
 -0.1625297285152543E-04   4   2   2   1
  0.1574526216336613E-02   4   2   2   2
 -0.8054076472734030E-06   4   2   3   1
  0.1059082885617719E-04   4   2   3   2
 -0.9664480767943037E-03   4   2   3   3
  0.6574718079570735E-04   4   2   4   1
  0.5361578769546519E-04   4   2   4   2
  0.1922285817009524E-02   4   3   1   1
 -0.1176989301224575E-03   4   3   2   1
  0.1221585060861077E-02   4   3   2   2
  0.8601540067166462E-04   4   3   3   1
 -0.9463872034737875E-04   4   3   3   2
  0.5971348530600396E-03   4   3   3   3
 -0.4632628071504915E-04   4   3   4   1
 -0.6775938257593533E-04   4   3   4   2
  0.4677735573980434E-03   4   3   4   3
  0.1364221620698025E+00   4   4   1   1
 -0.7405568478869896E-03   4   4   2   1
  0.1192808216773311E+00   4   4   2   2
  0.4102754793217627E-03   4   4   3   1
 -0.1076839608280086E-02   4   4   3   2
  0.1956668106221251E+00   4   4   3   3
 -0.3945714339942837E-02   4   4   4   1
 -0.2399197019497264E-02   4   4   4   2
  0.3114602610419147E-02   4   4   4   3
  0.5167465682460088E+00   4   4   4   4
 -0.1243506104131537E-03   5   1   1   1
 -0.1779945688960423E-04   5   1   2   1
 -0.9637484610066553E-04   5   1   2   2
 -0.1630443146083296E-05   5   1   3   1
  0.2505472823081652E-05   5   1   3   2
 -0.5058414579215172E-04   5   1   3   3
  0.5153138549172893E-05   5   1   4   1
  0.1426996779887263E-05   5   1   4   2
  0.1008295161128230E-06   5   1   4   3
  0.6814426701917956E-04   5   1   4   4
  0.2614284013810905E-05   5   1   5   1
 -0.3896364419023844E-03   5   2   1   1
  0.2221572621206863E-04   5   2   2   1
 -0.1282054491147839E-02   5   2   2   2
 -0.3888074333476393E-05   5   2   3   1
  0.8694396442178437E-05   5   2   3   2
  0.1062387920949358E-02   5   2   3   3
  0.4463302034246718E-05   5   2   4   1
 -0.1331825809644345E-04   5   2   4   2
 -0.3330881474352139E-05   5   2   4   3
  0.1250193322750262E-03   5   2   4   4
  0.3118593122982475E-05   5   2   5   1
  0.3557905966707177E-04   5   2   5   2
 -0.7291986148966739E-03   5   3   1   1
  0.4605091715202973E-04   5   3   2   1
 -0.5683818258345380E-03   5   3   2   2
 -0.4476347483372145E-04   5   3   3   1
  0.5586853700734263E-04   5   3   3   2
  0.8147434506567717E-03   5   3   3   3
  0.4331422704379430E-05   5   3   4   1
  0.3791216217420885E-05   5   3   4   2
 -0.1018208000080227E-03   5   3   4   3
 -0.9345236770734195E-03   5   3   4   4
 -0.3076866612561230E-05   5   3   5   1
  0.8722133796489264E-05   5   3   5   2
  0.3576869775162186E-03   5   3   5   3
  0.6290833497698100E-03   5   4   1   1
  0.3225316771559298E-05   5   4   2   1
  0.4893420959980151E-03   5   4   2   2
  0.4203171711050787E-05   5   4   3   1
 -0.5483596505620704E-06   5   4   3   2
  0.6945156825651387E-03   5   4   3   3
  0.7767591750321172E-04   5   4   4   1
  0.1728485743675072E-04   5   4   4   2
  0.6940170937726977E-04   5   4   4   3
 -0.2775043161947220E-02   5   4   4   4
 -0.8240010106021288E-06   5   4   5   1
  0.1507403800677504E-04   5   4   5   2
  0.8353553723066512E-04   5   4   5   3
  0.3975445255684096E-03   5   4   5   4
  0.1005021261813086E+00   5   5   1   1
 -0.5747623741672626E-03   5   5   2   1
  0.1051998885739908E+00   5   5   2   2
 -0.5692676583994539E-03   5   5   3   1
 -0.5678370380583116E-03   5   5   3   2
  0.1993417500870957E+00   5   5   3   3
 -0.1069513071274134E-02   5   5   4   1
 -0.4769866817095174E-03   5   5   4   2
 -0.6228570424875006E-03   5   5   4   3
  0.1931375203297417E+00   5   5   4   4
 -0.1241012124655258E-03   5   5   5   1
 -0.1281336774925244E-02   5   5   5   2
  0.2399931086901234E-02   5   5   5   3
 -0.1365619802399548E-02   5   5   5   4
  0.5215429645611865E+00   5   5   5   5
  0.1736518688487019E-01   6   1   1   1
  0.6520788155872571E-03   6   1   2   1
  0.2398843578426730E-02   6   1   2   2
  0.8319138225752645E-04   6   1   3   1
 -0.1611707337764281E-04   6   1   3   2
  0.3885116980583444E-02   6   1   3   3
 -0.8041253182367492E-04   6   1   4   1
 -0.1003611155218241E-03   6   1   4   2
  0.5250716911470345E-04   6   1   4   3
 -0.2049045486617856E-02   6   1   4   4
 -0.3247831067550009E-04   6   1   5   1
  0.2347161909166746E-04   6   1   5   2
 -0.4015958205707865E-04   6   1   5   3
 -0.5531133897215660E-05   6   1   5   4
  0.2622303031371336E-03   6   1   5   5
  0.7574717724842190E-02   6   1   6   1
  0.6590636612712300E-02   6   2   1   1
 -0.6352572749776969E-03   6   2   2   1
  0.1364959676604119E-02   6   2   2   2
 -0.4623699009936668E-04   6   2   3   1
 -0.8353081021086827E-04   6   2   3   2
 -0.6944175010194030E-03   6   2   3   3
 -0.6606301990176160E-04   6   2   4   1
 -0.3893391969734866E-06   6   2   4   2
 -0.2008865342251301E-04   6   2   4   3
 -0.1165337195126037E-02   6   2   4   4
 -0.2991986691864917E-05   6   2   5   1
 -0.1506972595262311E-04   6   2   5   2
  0.5455990643146841E-06   6   2   5   3
 -0.3455794190848529E-05   6   2   5   4
 -0.4893944255645648E-03   6   2   5   5
  0.7886951053968992E-03   6   2   6   1
  0.3976638557224877E-03   6   2   6   2
  0.8506014554473690E-03   6   3   1   1
  0.4476400584154060E-04   6   3   2   1
  0.6225902001503048E-03   6   3   2   2
 -0.7499245676195435E-04   6   3   3   1
  0.1017763309735321E-03   6   3   3   2
 -0.5967473096551301E-03   6   3   3   3
  0.2919805618239373E-05   6   3   4   1
  0.1097688708625864E-04   6   3   4   2
 -0.1744584242849753E-03   6   3   4   3
 -0.3188534097068433E-02   6   3   4   4
  0.1001512058118586E-05   6   3   5   1
  0.3334434568218222E-05   6   3   5   2
  0.9461066837479693E-04   6   3   5   3
 -0.2010099087645362E-04   6   3   5   4
 -0.1221365171637921E-02   6   3   5   5
  0.3008536133510615E-03   6   3   6   1
  0.6940110910361419E-04   6   3   6   2
  0.4678127159447776E-03   6   3   6   3
  0.2810308351862233E-02   6   4   1   1
 -0.2890550322377712E-03   6   4   2   1
  0.2789031901602547E-02   6   4   2   2
  0.3805631053936271E-04   6   4   3   1
 -0.4640746259202644E-04   6   4   3   2
  0.5483097811393482E-02   6   4   3   3
 -0.2615975803175864E-03   6   4   4   1
 -0.1403986485004469E-03   6   4   4   2
  0.2725800022177951E-03   6   4   4   3
  0.5355127040913678E-02   6   4   4   4
 -0.1181825113213379E-04   6   4   5   1
  0.1134705309958737E-04   6   4   5   2
 -0.4637699092777255E-04   6   4   5   3
 -0.4685375942256037E-04   6   4   5   4
  0.2789044722803996E-02   6   4   5   5
  0.7287221531300425E-03   6   4   6   1
  0.4692639086898487E-04   6   4   6   2
 -0.2726448444539519E-03   6   4   6   3
  0.1176354036920380E-02   6   4   6   4
  0.7630114433061832E-03   6   5   1   1
 -0.2325263159965100E-04   6   5   2   1
  0.4769104638158572E-03   6   5   2   2
  0.7246165218752801E-05   6   5   3   1
 -0.3792974152316515E-05   6   5   3   2
  0.9663080648948183E-03   6   5   3   3
 -0.6753769510137358E-05   6   5   4   1
 -0.5896554110439759E-05   6   5   4   2
  0.1097385348070548E-04   6   5   4   3
  0.5091356458958234E-03   6   5   4   4
 -0.1923825136241851E-05   6   5   5   1
  0.1331004012150602E-04   6   5   5   2
 -0.1057220853529211E-04   6   5   5   3
 -0.3795142954928616E-06   6   5   5   4
 -0.1574163759907644E-02   6   5   5   5
  0.1353275411007347E-03   6   5   6   1
  0.1730131008891010E-04   6   5   6   2
 -0.6777063418598732E-04   6   5   6   3
  0.1403923882977277E-03   6   5   6   4
  0.5361032813885328E-04   6   5   6   5
  0.3012878304837925E+00   6   6   1   1
 -0.1025460797730353E-02   6   6   2   1
  0.1931327587270704E+00   6   6   2   2
  0.1210858096277901E-02   6   6   3   1
 -0.9353761182498326E-03   6   6   3   2
  0.1956612058338087E+00   6   6   3   3
  0.7858746693252393E-03   6   6   4   1
 -0.5090147185029242E-03   6   6   4   2
  0.3188180848510226E-02   6   6   4   3
  0.1996027411889984E+00   6   6   4   4
  0.4386682650162413E-05   6   6   5   1
  0.1250077260744385E-03   6   6   5   2
 -0.1076900352341459E-02   6   6   5   3
  0.1165308140927546E-02   6   6   5   4
  0.1192783938597182E+00   6   6   5   5
  0.1659278737279798E-01   6   6   6   1
  0.2776546045161504E-02   6   6   6   2
 -0.3115175355066065E-02   6   6   6   3
  0.5354192902629415E-02   6   6   6   4
  0.2399267036401056E-02   6   6   6   5
  0.5167452316292919E+00   6   6   6   6
  0.1366036098038207E-02   7   1   1   1
 -0.6356250750216661E-03   7   1   2   1
  0.6592014187695917E-02   7   1   2   2
  0.5064789763813818E-04   7   1   3   1
  0.9706740848152486E-04   7   1   3   2
 -0.9997080886932218E-03   7   1   3   3
  0.7618617615027386E-06   7   1   4   1
  0.3966804720150025E-04   7   1   4   2
  0.3686264166016337E-05   7   1   4   3
 -0.6489905693480571E-03   7   1   4   4
  0.8162101871793920E-06   7   1   5   1
 -0.3776937995071040E-04   7   1   5   2
 -0.2675935086065115E-04   7   1   5   3
 -0.4116745770271085E-05   7   1   5   4
 -0.6289709529017415E-03   7   1   5   5
 -0.4346752030250779E-03   7   1   6   1
  0.5894011819100831E-04   7   1   6   2
 -0.2373069287050705E-04   7   1   6   3
  0.1123786541715381E-04   7   1   6   4
 -0.1347726083611071E-05   7   1   6   5
 -0.1347648807729419E-02   7   1   6   6
  0.3976696883899264E-03   7   1   7   1
  0.2395998988743585E-02   7   2   1   1
  0.6525841071410485E-03   7   2   2   1
  0.1736129522039222E-01   7   2   2   2
  0.3073478107992546E-03   7   2   3   1
  0.5688793639291221E-03   7   2   3   2
  0.2371763211298703E-02   7   2   3   3
  0.6331330662436649E-04   7   2   4   1
 -0.7420298729092088E-05   7   2   4   2
  0.1928628185994860E-03   7   2   4   3
  0.1162790412247585E-02   7   2   4   4
 -0.2204186147812686E-04   7   2   5   1
  0.1441749582504327E-04   7   2   5   2
 -0.1974750571961551E-03   7   2   5   3
  0.1169643438738436E-05   7   2   5   4
 -0.5847681605307075E-03   7   2   5   5
  0.6700938880654067E-03   7   2   6   1
 -0.4349522702801543E-03   7   2   6   2
 -0.3376854087446646E-04   7   2   6   3
  0.1719774154725369E-03   7   2   6   4
  0.2426631679474158E-04   7   2   6   5
  0.3685846440200124E-02   7   2   6   6
  0.7888071999609155E-03   7   2   7   1
  0.7573062502698598E-02   7   2   7   2
 -0.3744030714664772E-02   7   3   1   1
  0.6298147779656809E-03   7   3   2   1
 -0.3015910128004739E-02   7   3   2   2
 -0.1238597697321040E-03   7   3   3   1
 -0.6212608011273359E-03   7   3   3   2
 -0.1009849286347772E-01   7   3   3   3
 -0.7270154371247803E-04   7   3   4   1
  0.6649883617859970E-04   7   3   4   2
  0.5325424139527884E-04   7   3   4   3
  0.1529433146756228E-02   7   3   4   4
 -0.6472131269755389E-05   7   3   5   1
 -0.8438227922666167E-04   7   3   5   2
  0.6312722005409599E-04   7   3   5   3
  0.4565011139314400E-05   7   3   5   4
  0.2238462849625506E-02   7   3   5   5
 -0.4845529624093995E-03   7   3   6   1
 -0.3382095713975634E-04   7   3   6   2
 -0.4968626390701690E-03   7   3   6   3
 -0.5426251836160420E-04   7   3   6   4
 -0.1060903818750111E-04   7   3   6   5
 -0.3075085963515233E-02   7   3   6   6
  0.2840241993591892E-03   7   3   7   1
  0.2007806923533225E-03   7   3   7   2
  0.6828901443252699E-02   7   3   7   3
  0.1569773081274627E-03   7   4   1   1
  0.1830456144336826E-04   7   4   2   1
  0.3149369832024845E-03   7   4   2   2
 -0.2396779155757653E-05   7   4   3   1
  0.4868135562532258E-04   7   4   3   2
  0.1445974148443452E-02   7   4   3   3
 -0.5260089678958284E-04   7   4   4   1
 -0.3552708650596359E-04   7   4   4   2
  0.6932099539905487E-04   7   4   4   3
  0.2531033515359001E-02   7   4   4   4
  0.2109624355618571E-05   7   4   5   1
  0.7293478065332812E-05   7   4   5   2
  0.5368168819773922E-05   7   4   5   3
 -0.1815063924528575E-05   7   4   5   4
  0.1570227966389291E-03   7   4   5   5
 -0.1929528618453747E-04   7   4   6   1
 -0.7003278279415578E-05   7   4   6   2
 -0.5687444708977327E-05   7   4   6   3
  0.8849100223467783E-04   7   4   6   4
  0.2164175998471303E-05   7   4   6   5
  0.3777793523235607E-03   7   4   6   6
  0.1796552386156599E-05   7   4   7   1
  0.1558774042023268E-04   7   4   7   2
 -0.2920232899682038E-03   7   4   7   3
  0.8322425676034447E-04   7   4   7   4
  0.1069319672187369E-02   7   5   1   1
 -0.8314150689596174E-04   7   5   2   1
  0.1987632525957900E-02   7   5   2   2
  0.1776480585215288E-04   7   5   3   1
  0.2582967081116787E-04   7   5   3   2
  0.9087969328996021E-03   7   5   3   3
  0.6832683986336094E-05   7   5   4   1
  0.5258204482876208E-06   7   5   4   2
  0.2769143920550681E-04   7   5   4   3
  0.4310355598441585E-04   7   5   4   4
 -0.5149495750311514E-05   7   5   5   1
 -0.2757790316022887E-04   7   5   5   2
 -0.1084655593478605E-04   7   5   5   3
  0.7512674513640409E-06   7   5   5   4
  0.1895323808253139E-02   7   5   5   5
  0.6223883696041774E-04   7   5   6   1
  0.8512734219645222E-06   7   5   6   2
  0.1790142094976609E-04   7   5   6   3
  0.1383929359989222E-04   7   5   6   4
 -0.1416006115548690E-04   7   5   6   5
  0.6919742416604333E-03   7   5   6   6
  0.7769618257964615E-04   7   5   7   1
  0.4991037867234104E-03   7   5   7   2
 -0.4157082636432998E-03   7   5   7   3
  0.5261321512276997E-04   7   5   7   4
  0.1895050959277086E-03   7   5   7   5
 -0.1833749908242361E-02   7   6   1   1
  0.3050587663662201E-03   7   6   2   1
 -0.1834092162913538E-02   7   6   2   2
 -0.6870528552887988E-05   7   6   3   1
  0.3538744929592291E-04   7   6   3   2
 -0.1852371557664875E-02   7   6   3   3
  0.2072001380426969E-04   7   6   4   1
  0.8111232514505375E-05   7   6   4   2
 -0.4642597170180251E-04   7   6   4   3
 -0.4165290026351685E-03   7   6   4   4
  0.5557187630235860E-05   7   6   5   1
  0.9328839677132590E-05   7   6   5   2
  0.2178791412861564E-04   7   6   5   3
  0.3047107867815191E-05   7   6   5   4
 -0.4827671986413084E-03   7   6   5   5
 -0.1508953921821460E-03   7   6   6   1
 -0.5507684759845422E-04   7   6   6   2
  0.5588727440250621E-04   7   6   6   3
 -0.1152448012365275E-03   7   6   6   4
 -0.6699877245712192E-05   7   6   6   5
  0.9718428357512424E-03   7   6   6   6
 -0.5514064307673350E-04   7   6   7   1
 -0.1509522617727143E-03   7   6   7   2
  0.1192823647597497E-03   7   6   7   3
  0.8283342770853369E-05   7   6   7   4
 -0.1149818573816577E-04   7   6   7   5
  0.1088991169323586E-03   7   6   7   6
  0.1931197993526812E+00   7   7   1   1
 -0.1024247609900344E-02   7   7   2   1
  0.3012782329869387E+00   7   7   2   2
  0.1014646351542421E-02   7   7   3   1
  0.5347571184276048E-02   7   7   3   2
  0.3023611102636431E+00   7   7   3   3
 -0.4301758481758868E-04   7   7   4   1
 -0.1861889921455952E-03   7   7   4   2
  0.1782711529798447E-04   7   7   4   3
  0.1328318591838972E+00   7   7   4   4
  0.6815628122600016E-04   7   7   5   1
  0.9560356246011540E-03   7   7   5   2
 -0.8611092491610586E-04   7   7   5   3
  0.6495026254625157E-03   7   7   5   4
  0.1364192322042621E+00   7   7   5   5
  0.3686330060166956E-02   7   7   6   1
 -0.1349124463674720E-02   7   7   6   2
  0.1399840278712278E-02   7   7   6   3
  0.3280823093782930E-02   7   7   6   4
  0.4991941417152321E-03   7   7   6   5
  0.1676162784670627E+00   7   7   6   6
  0.2774470140864474E-02   7   7   7   1
  0.1658704787768678E-01   7   7   7   2
 -0.1656420154534749E-01   7   7   7   3
  0.2531346974421936E-02   7   7   7   4
  0.3945780329988952E-02   7   7   7   5
  0.9723679317553968E-03   7   7   7   6
  0.5167464341119687E+00   7   7   7   7
  0.2401067077147394E-02   8   1   1   1
  0.4202439678881886E-03   8   1   2   1
 -0.1090381237319242E-02   8   1   2   2
  0.3170275032768796E-04   8   1   3   1
  0.2339227884818175E-04   8   1   3   2
 -0.1670155836938155E-02   8   1   3   3
  0.1083663910758574E-04   8   1   4   1
  0.2955271672502909E-05   8   1   4   2
  0.1868528578255653E-04   8   1   4   3
 -0.8615854267244963E-04   8   1   4   4
 -0.3076225093131833E-05   8   1   5   1
 -0.1439290422241853E-05   8   1   5   2
 -0.4174749994430781E-06   8   1   5   3
  0.2671148257600134E-04   8   1   5   4
 -0.7292583150625001E-03   8   1   5   5
  0.5692778288138916E-03   8   1   6   1
  0.9717081778328351E-04   8   1   6   2
 -0.8150917494633358E-04   8   1   6   3
 -0.7581661987121575E-04   8   1   6   4
  0.2231907648652234E-04   8   1   6   5
  0.5348763250190854E-02   8   1   6   6
 -0.8352992463525472E-04   8   1   7   1
 -0.1605930727888194E-04   8   1   7   2
  0.3222550131599418E-05   8   1   7   3
  0.5371304398105809E-05   8   1   7   4
 -0.4340174384922378E-05   8   1   7   5
  0.3537258459164161E-04   8   1   7   6
 -0.9347076792908819E-03   8   1   7   7
  0.3575588374007118E-03   8   1   8   1
  0.1332983668057169E-02   8   2   1   1
 -0.6907056006548681E-04   8   2   2   1
 -0.1917181741090508E-02   8   2   2   2
 -0.8470315287814443E-06   8   2   3   1
  0.3169737333070219E-04   8   2   3   2
  0.1331424848920765E-02   8   2   3   3
  0.2035815631372848E-04   8   2   4   1
 -0.2022502948171221E-04   8   2   4   2
 -0.4606381513213011E-04   8   2   4   3
 -0.1601080609660491E-02   8   2   4   4
 -0.1792700712770630E-05   8   2   5   1
  0.2433105809874413E-04   8   2   5   2
  0.1441315904811559E-04   8   2   5   3
  0.3380258718164674E-05   8   2   5   4
 -0.6395157800077476E-04   8   2   5   5
  0.3074588333668663E-03   8   2   6   1
  0.5061169913249186E-04   8   2   6   2
  0.6752426571525127E-04   8   2   6   3
 -0.3674528508050800E-04   8   2   6   4
  0.1953972681001125E-05   8   2   6   5
  0.1014804561653771E-02   8   2   6   6
 -0.4625634488720788E-04   8   2   7   1
  0.8315713047088734E-04   8   2   7   2
 -0.2949181978569431E-03   8   2   7   3
 -0.6661842031593495E-05   8   2   7   4
  0.9915398645207315E-05   8   2   7   5
 -0.6858790018509956E-05   8   2   7   6
  0.1210939780689765E-02   8   2   7   7
  0.4152674734269102E-04   8   2   8   1
  0.1472372858021710E-03   8   2   8   2
 -0.1951570043340998E-02   8   3   1   1
  0.4189608363012074E-03   8   3   2   1
 -0.1951937451446190E-02   8   3   2   2
 -0.1006434566100074E-03   8   3   3   1
  0.4968184855092187E-03   8   3   3   2
 -0.9501587438249489E-02   8   3   3   3
  0.3826171534310505E-04   8   3   4   1
  0.2751175028773555E-04   8   3   4   2
 -0.6228303585430256E-03   8   3   4   3
  0.9650026750383928E-03   8   3   4   4
  0.1860494875473537E-04   8   3   5   1
  0.1042778405755673E-04   8   3   5   2
  0.4968142522238037E-03   8   3   5   3
  0.2815291279410689E-04   8   3   5   4
 -0.1951650756039077E-02   8   3   5   5
 -0.5613205111106138E-03   8   3   6   1
 -0.2817078923097899E-04   8   3   6   2
  0.6228469767746521E-03   8   3   6   3
 -0.3853774183829713E-03   8   3   6   4
 -0.2747944545943762E-04   8   3   6   5
  0.9657199547602371E-03   8   3   6   6
 -0.2834073993139219E-04   8   3   7   1
 -0.5614609631178185E-03   8   3   7   2
 -0.1219113890637873E-02   8   3   7   3
  0.1110083727286348E-03   8   3   7   4
 -0.3825391729901508E-04   8   3   7   5
  0.2807332909391743E-03   8   3   7   6
  0.9663786266141284E-03   8   3   7   7
  0.4968128427541564E-03   8   3   8   1
 -0.1006021239646788E-03   8   3   8   2
  0.6255590335921933E-02   8   3   8   3
 -0.2238653956298289E-02   8   4   1   1
  0.1724955085597853E-03   8   4   2   1
 -0.1871509623212186E-02   8   4   2   2
  0.1046396376216731E-04   8   4   3   1
 -0.5641346940329606E-04   8   4   3   2
  0.3555169359239153E-03   8   4   3   3
 -0.4155669980959651E-03   8   4   4   1
 -0.2549830536546030E-03   8   4   4   2
  0.8133565802428714E-03   8   4   4   3
  0.1656386937640126E-01   8   4   4   4
  0.6460208856052586E-05   8   4   5   1
  0.9196808173669410E-05   8   4   5   2
 -0.3189169177941200E-05   8   4   5   3
  0.2842918036926674E-03   8   4   5   4
  0.3744709362016074E-02   8   4   5   5
 -0.7298627343287222E-03   8   4   6   1
 -0.1033238004318795E-03   8   4   6   2
 -0.2525754332438965E-03   8   4   6   3
  0.9144436839629583E-03   8   4   6   4
 -0.1891069065502196E-04   8   4   6   5
 -0.1173114217162735E-02   8   4   6   6
  0.4506163718958245E-05   8   4   7   1
 -0.2090680497317275E-03   8   4   7   2
  0.6096216613049704E-03   8   4   7   3
  0.2919696511459074E-03   8   4   7   4
 -0.7270800406909477E-04   8   4   7   5
 -0.6139857211797588E-06   8   4   7   6
 -0.1529670873098085E-02   8   4   7   7
 -0.6294158070564021E-04   8   4   8   1
 -0.2454539270997337E-03   8   4   8   2
  0.1219007365182738E-02   8   4   8   3
  0.6828603670357309E-02   8   4   8   4
 -0.5694930748922994E-03   8   5   1   1
  0.2002479217115011E-05   8   5   2   1
 -0.6368924599539580E-04   8   5   2   2
 -0.2481577303685129E-04   8   5   3   1
  0.1441954224330043E-04   8   5   3   2
  0.1331933462646093E-02   8   5   3   3
 -0.1778582289585735E-04   8   5   4   1
 -0.1956619664175616E-05   8   5   4   2
 -0.6750913743860267E-04   8   5   4   3
  0.1014819293753161E-02   8   5   4   4
 -0.1634254367743423E-05   8   5   5   1
  0.2432278586434070E-04   8   5   5   2
  0.3175196517481987E-04   8   5   5   3
 -0.5058672119255097E-04   8   5   5   4
 -0.1917068248082414E-02   8   5   5   5
 -0.2792949511604031E-04   8   5   6   1
 -0.3386719899024515E-05   8   5   6   2
  0.4607786290308498E-04   8   5   6   3
 -0.3672983749218578E-04   8   5   6   4
  0.2021818719757298E-04   8   5   6   5
 -0.1600799346173465E-02   8   5   6   6
 -0.4211490837030950E-05   8   5   7   1
 -0.4088064595023055E-04   8   5   7   2
 -0.1045985893829632E-04   8   5   7   3
 -0.2401835566424752E-05   8   5   7   4
 -0.4015785684864133E-04   8   5   7   5
 -0.5311981486207145E-05   8   5   7   6
  0.4102709166077799E-03   8   5   7   7
 -0.4474827883591036E-04   8   5   8   1
  0.5072819958179386E-04   8   5   8   2
 -0.1006678138798955E-03   8   5   8   3
  0.1238436956532490E-03   8   5   8   4
  0.1472204162613541E-03   8   5   8   5
 -0.3014758884228171E-02   8   6   1   1
  0.6299872675999394E-03   8   6   2   1
 -0.3744675870298010E-02   8   6   2   2
 -0.2948294402708455E-03   8   6   3   1
  0.3338662323919614E-05   8   6   3   2
 -0.3546506476557030E-03   8   6   3   3
 -0.2692667305909826E-03   8   6   4   1
 -0.1891667157085105E-04   8   6   4   2
 -0.2525729570514322E-03   8   6   4   3
  0.1172749216288061E-02   8   6   4   4
  0.1118813736361454E-05   8   6   5   1
 -0.9201519870351929E-05   8   6   5   2
  0.5651755083012693E-04   8   6   5   3
 -0.1032615569063076E-03   8   6   5   4
  0.1871207641734787E-02   8   6   5   5
  0.2008561572400692E-03   8   6   6   1
  0.2841493984744953E-03   8   6   6   2
  0.8135040387080201E-03   8   6   6   3
 -0.9144534862148832E-03   8   6   6   4
 -0.2549841814557409E-03   8   6   6   5
 -0.1656187897168537E-01   8   6   6   6
 -0.3396959337414104E-04   8   6   7   1
 -0.4845745063402376E-03   8   6   7   2
  0.6282308181437560E-03   8   6   7   3
  0.1563492861466546E-04   8   6   7   4
 -0.7317852586203188E-04   8   6   7   5
  0.1192689451546002E-03   8   6   7   6
 -0.3074997727767147E-02   8   6   7   7
 -0.6213941757566814E-03   8   6   8   1
 -0.1239243193420783E-03   8   6   8   2
 -0.1219125033723936E-02   8   6   8   3
  0.1567957576488111E-02   8   6   8   4
  0.2453861192018479E-03   8   6   8   5
  0.6828155665464679E-02   8   6   8   6
  0.6228314110372993E-03   8   7   1   1
  0.4470848091186997E-04   8   7   2   1
  0.8506252489355727E-03   8   7   2   2
  0.6747869468692660E-04   8   7   3   1
 -0.8157154250693922E-04   8   7   3   2
 -0.7353068113044320E-02   8   7   3   3
  0.2769779239070455E-04   8   7   4   1
  0.1507164028368045E-04   8   7   4   2
  0.7692861046576224E-04   8   7   4   3
 -0.1753711851541835E-04   8   7   4   4
 -0.1012022189579309E-06   8   7   5   1
 -0.2731229058772907E-04   8   7   5   2
 -0.1872764115370051E-04   8   7   5   3
  0.3626018419407339E-05   8   7   5   4
 -0.1922199845804177E-02   8   7   5   5
 -0.3373843521043207E-04   8   7   6   1
 -0.2370668449810862E-04   8   7   6   2
  0.2844335526368476E-04   8   7   6   3
 -0.4692451703886861E-04   8   7   6   4
 -0.6550811468272134E-05   8   7   6   5
  0.1400070483441858E-02   8   7   6   6
  0.6941870660781220E-04   8   7   7   1
  0.3009043886613740E-03   8   7   7   2
  0.8136239987170842E-03   8   7   7   3
 -0.6934855779729360E-04   8   7   7   4
 -0.4639738542284508E-04   8   7   7   5
  0.5587183278407557E-04   8   7   7   6
 -0.3115786714703815E-02   8   7   7   7
  0.1017917115212903E-03   8   7   8   1
 -0.7498268033853226E-04   8   7   8   2
  0.6227155676909212E-03   8   7   8   3
  0.5329716072099335E-04   8   7   8   4
 -0.8605147288746132E-04   8   7   8   5
 -0.4969156921827066E-03   8   7   8   6
  0.4678504664404508E-03   8   7   8   7
  0.1993428312829263E+00   8   8   1   1
 -0.3210591655529199E-02   8   8   2   1
  0.1736639559148692E+00   8   8   2   2
  0.1331677471111915E-02   8   8   3   1
 -0.1670099407229307E-02   8   8   3   2
  0.3102390260956042E+00   8   8   3   3
 -0.9075300672045476E-03   8   8   4   1
 -0.1491927254455806E-02   8   8   4   2
  0.7352679589538912E-02   8   8   4   3
  0.3023606545235372E+00   8   8   4   4
 -0.5058200377918072E-04   8   8   5   1
  0.5053721030242029E-03   8   8   5   2
 -0.1669512325556455E-02   8   8   5   3
  0.1000679366251010E-02   8   8   5   4
  0.1736609163497181E+00   8   8   5   5
  0.2372340229198154E-02   8   8   6   1
 -0.1000297493337472E-02   8   8   6   2
 -0.7353180523609754E-02   8   8   6   3
  0.9540250449948405E-02   8   8   6   4
  0.1491843645145435E-02   8   8   6   5
  0.3023556165522940E+00   8   8   6   6
 -0.6930962318017330E-03   8   8   7   1
  0.3885323482057675E-02   8   8   7   2
 -0.3554686968473483E-03   8   8   7   3
  0.1445865205208273E-02   8   8   7   4
  0.4351648583743734E-03   8   8   7   5
 -0.1852564174804493E-02   8   8   7   6
  0.1956662786936769E+00   8   8   7   7
  0.8123783300608249E-03   8   8   8   1
 -0.3001051571512395E-02   8   8   8   2
 -0.9504067531339838E-02   8   8   8   3
  0.1009913675302218E-01   8   8   8   4
 -0.3000566339025974E-02   8   8   8   5
 -0.1009794904290220E-01   8   8   8   6
 -0.5963556902530143E-03   8   8   8   7
  0.5586921664029783E+00   8   8   8   8
  0.1574036320929510E-02   9   1   1   1
 -0.1621968586666710E-04   9   1   2   1
 -0.1655457987437526E-03   9   1   2   2
 -0.2020585497730179E-04   9   1   3   1
  0.2945049037275549E-05   9   1   3   2
 -0.1491866644548723E-02   9   1   3   3
 -0.1416542366418309E-04   9   1   4   1
  0.5821867906097834E-05   9   1   4   2
 -0.6548980593644511E-05   9   1   4   3
 -0.4991703093513726E-03   9   1   4   4
  0.1922131798024517E-05   9   1   5   1
 -0.4197900306687738E-05   9   1   5   2
 -0.2234451312290128E-04   9   1   5   3
 -0.1358043507919635E-05   9   1   5   4
 -0.7631073000293165E-03   9   1   5   5
 -0.7397752992173304E-05   9   1   6   1
  0.3965910776505591E-04   9   1   6   2
  0.1506819003507482E-04   9   1   6   3
 -0.3163937981753718E-04   9   1   6   4
 -0.4346801117533866E-05   9   1   6   5
 -0.1859970927482021E-03   9   1   6   6
 -0.4156494871924979E-06   9   1   7   1
 -0.1003456495611299E-03   9   1   7   2
 -0.1895023592784548E-04   9   1   7   3
 -0.2164316938088565E-05   9   1   7   4
 -0.6758239666242644E-05   9   1   7   5
  0.8112470228578904E-05   9   1   7   6
 -0.5090547781449907E-03   9   1   7   7
  0.1059588746368245E-04   9   1   8   1
 -0.8046309446235614E-06   9   1   8   2
  0.2747624915728017E-04   9   1   8   3
 -0.1061205056267019E-04   9   1   8   4
 -0.7247517051680666E-05   9   1   8   5
  0.6647943117612994E-04   9   1   8   6
  0.1097365774037203E-04   9   1   8   7
 -0.9661814236455246E-03   9   1   8   8
  0.5361211117299482E-04   9   1   9   1
 -0.2546905123340243E-03   9   2   1   1
 -0.5631526819154924E-04   9   2   2   1
 -0.1896174113452207E-02   9   2   2   2
  0.2033907898740521E-04   9   2   3   1
  0.1078850006354816E-04   9   2   3   2
 -0.9075631565208420E-03   9   2   3   3
  0.1573818264074787E-04   9   2   4   1
 -0.1417473733355517E-04   9   2   4   2
  0.1791321284600206E-04   9   2   4   3
 -0.6917159086205238E-03   9   2   4   4
  0.4393668614398891E-05   9   2   5   1
  0.2759996782487012E-04   9   2   5   2
 -0.2589333973601580E-04   9   2   5   3
  0.8515449582898751E-06   9   2   5   4
 -0.1987308086260127E-02   9   2   5   5
  0.6332040129481436E-04   9   2   6   1
  0.7584375576925748E-06   9   2   6   2
  0.2768875587252478E-04   9   2   6   3
 -0.1382479460853154E-04   9   2   6   4
  0.5285411996872878E-06   9   2   6   5
 -0.4276129294365350E-04   9   2   6   6
 -0.6607886121926288E-04   9   2   7   1
 -0.8046370088321609E-04   9   2   7   2
 -0.2692652485579543E-03   9   2   7   3
  0.5362101891428346E-05   9   2   7   4
 -0.1546236361494433E-04   9   2   7   5